/*--------------------------------*- C++ -*----------------------------------*\
| =========                 |                                                 |
| \\      /  F ield         | OpenFOAM: The Open Source CFD Toolbox           |
|  \\    /   O peration     | Version:  4.1                                   |
|   \\  /    A nd           | Web:      www.OpenFOAM.org                      |
|    \\/     M anipulation  |                                                 |
\*---------------------------------------------------------------------------*/
FoamFile
{
    version     2.0;
    format      ascii;
    class       volScalarField;
    object      nut;
}
// * * * * * * * * * * * * * * * * * * * * * * * * * * * * * * * * * * * * * //

dimensions      [0 2 -1 0 0 0 0];

internalField   uniform 0;

boundaryField
{
    #include "include/slipPatches"

    z_
    {
        /*
        type            nutkAtmRoughWallFunction;
	z0              uniform 1.8e-4;
	zGround         uniform 0;
            */
        type            nutkWallFunction;
        value           uniform 0;
    }

    oldInternalFaces
    {
        type            nutkWallFunction;
        value           uniform 0;
    }

    ".*"
    {
        type            calculated;
        value           uniform 0;
    }
}

// ************************************************************************* //
