/*--------------------------------*- C++ -*----------------------------------*\
| =========                 |                                                 |
| \\      /  F ield         | OpenFOAM: The Open Source CFD Toolbox           |
|  \\    /   O peration     | Version:  2.0.x                                 |
|   \\  /    A nd           | Web:      www.OpenFOAM.org                      |
|    \\/     M anipulation  |                                                 |
\*---------------------------------------------------------------------------*/
FoamFile
{
    version     2.0;
    format      ascii;
    class       volScalarField;
    object      p;
}
// * * * * * * * * * * * * * * * * * * * * * * * * * * * * * * * * * * * * * //

dimensions      [0 2 -2 0 0 0 0];

internalField   uniform 0;

boundaryField
{
    x_
    {
        type            zeroGradient;
    }

    _x
    {
      type            fixedValue;
      value           uniform 0;
    }

    y_
    {
        type slip;
    }

    _y
    {
        type slip;
    }

    _z
    {
        type slip;
    }

    ".*"
    {
        type            zeroGradient;
    }
}

// ************************************************************************* //
